 Gaussian 16, Revision A.03,
 Gaussian 16:  ES64L-G16RevA.03 25-Dec-2016

 -------------------------------
 #mp2/6-311++g(2df,2pd) opt freq
 -------------------------------

 ----------------
 C6H4OH2_ortho_C1
 ----------------
 Symbolic Z-matrix:
 Charge =  0 Multiplicity = 1

 SCF Done:  E(RHF) =  -380.548891228     A.U. after   14 cycles
 E2 =    -0.1421113341D+01 EUMP2 =    -0.38197000456911D+03
 SCF Done:  E(RHF) =  -380.550900895     A.U. after   11 cycles
 E2 =    -0.1419561008D+01 EUMP2 =    -0.38197046190249D+03
 SCF Done:  E(RHF) =  -380.550976215     A.U. after   11 cycles
 E2 =    -0.1419533288D+01 EUMP2 =    -0.38197050950328D+03
 SCF Done:  E(RHF) =  -380.551122616     A.U. after   13 cycles
 E2 =    -0.1419479352D+01 EUMP2 =    -0.38197060196725D+03
 SCF Done:  E(RHF) =  -380.551136608     A.U. after   11 cycles
 E2 =    -0.1419488384D+01 EUMP2 =    -0.38197062499224D+03
 SCF Done:  E(RHF) =  -380.551086814     A.U. after   11 cycles
 E2 =    -0.1419546134D+01 EUMP2 =    -0.38197063294848D+03
 SCF Done:  E(RHF) =  -380.551071307     A.U. after    9 cycles
 E2 =    -0.1419562055D+01 EUMP2 =    -0.38197063336250D+03
 Optimization completed.
    -- Stationary point found.
 Normal termination of Gaussian 16 at Wed Feb 15 10:19:41 2017.

 ----------------------------------------------------------------------
 #N Geom=AllCheck Guess=TCheck SCRF=Check GenChk RMP2(FC)/6-311++G(2df,
 2pd) Freq
 ----------------------------------------------------------------------

 Structure from the checkpoint file:  "/scratch-local/aubhfc.C6H4OH2orthoC1comG.71433/Gau-19278.chk"
 ----------------
 C6H4OH2_ortho_C1
 ----------------
 Charge =  0 Multiplicity = 1

                         Standard orientation:
 ---------------------------------------------------------------------
 Center     Atomic      Atomic             Coordinates (Angstroms)
 Number     Number       Type             X           Y           Z
 ---------------------------------------------------------------------
      1          6           0       -0.716234   -1.387398    0.000101
      2          6           0        0.503704   -0.725726   -0.000014
      3          6           0        0.529659    0.671681   -0.000123
      4          6           0       -0.652097    1.397840   -0.000048
      5          6           0       -1.876200    0.730284   -0.000010
      6          6           0       -1.904928   -0.660821    0.000027
      7          1           0       -0.715696   -2.468294    0.000275
      8          1           0       -2.849992   -1.184567    0.000026
      9          8           0        1.662433   -1.437817   -0.000219
     10          1           0        2.390018   -0.803873    0.001465
     11          1           0       -2.795103    1.298313    0.000064
     12          1           0       -0.614353    2.480540   -0.000095
     13          8           0        1.784549    1.229688   -0.000058
     14          1           0        1.705846    2.187758    0.000877
 ---------------------------------------------------------------------

 SCF Done:  E(RHF) =  -380.551071307     A.U. after    1 cycles
 E2 =    -0.1419562060D+01 EUMP2 =    -0.38197063336729D+03
 E2 =    -0.1419562060D+01 EUMP2 =    -0.38197063336729D+03

 The electronic state is 1-A.
 Alpha  occ. eigenvalues --  -20.60576 -20.58443 -11.30180 -11.29656 -11.24235
 Alpha  occ. eigenvalues --  -11.23462 -11.23320 -11.23172  -1.42950  -1.39384
 Alpha  occ. eigenvalues --   -1.14894  -1.02008  -1.00583  -0.86563  -0.83082
 Alpha  occ. eigenvalues --   -0.74294  -0.73790  -0.67332  -0.64737  -0.62133
 Alpha  occ. eigenvalues --   -0.60748  -0.59631  -0.57265  -0.56311  -0.52385
 Alpha  occ. eigenvalues --   -0.50554  -0.47834  -0.33741  -0.30864
 Alpha virt. eigenvalues --    0.03501   0.04606   0.05348   0.06780   0.06964
 Alpha virt. eigenvalues --    0.09532   0.10645   0.12608   0.12775   0.13057
 Alpha virt. eigenvalues --    0.14808   0.15145   0.15574   0.16321   0.17617

 Mulliken charges:
               1
     1  C   -0.097639
     2  C   -0.102517
     3  C    0.296202
     4  C    0.225232
     5  C   -0.135383
     6  C   -0.080792
     7  H    0.070973
     8  H    0.054817
     9  O   -0.366233
    10  H    0.243193
    11  H    0.051034
    12  H    0.006796
    13  O   -0.368568
    14  H    0.202884
 Sum of Mulliken charges =  -0.00000

 Dipole moment (field-independent basis, Debye):
    X=             -0.3399    Y=              2.5532    Z=              0.0043  Tot=              2.5757
 Quadrupole moment (field-independent basis, Debye-Ang):
   XX=            -43.0956   YY=            -40.4805   ZZ=            -51.1407
   XY=              4.2336   XZ=              0.0110   YZ=              0.0013

  Exact polarizability:  95.562   0.395  88.095   0.002   0.000  46.945
 Approx polarizability:  84.085   0.106  82.500   0.001   0.002  50.431

                      1                      2                      3
                      A                      A                      A
 Frequencies --    156.2772               193.2699               292.4039
 Red. masses --      1.3435                 2.6609                 5.4471
 Frc consts  --      0.0193                 0.0586                 0.2744
 IR Inten    --    122.4800                23.3772                 0.4202

                      4                      5                      6
                      A                      A                      A
 Frequencies --    308.4034               412.7384               443.1188
 Red. masses --      5.3664                 1.1732                 4.7750
 Frc consts  --      0.3007                 0.1178                 0.5524
 IR Inten    --      5.0236                58.6799                 7.6687

                      7                      8                      9
                      A                      A                      A
 Frequencies --    455.8346               557.3428               557.7226
 Red. masses --      2.5939                 5.7114                 4.6123
 Frc consts  --      0.3176                 1.0453                 0.8453
 IR Inten    --      0.9282                 9.1429                 0.3342

                     10                     11                     12
                      A                      A                      A
 Frequencies --    582.3813               700.7988               745.4023
 Red. masses --      7.1809                 5.6538                 1.2423
 Frc consts  --      1.4350                 1.6360                 0.4067
 IR Inten    --      1.8392                 0.2653                80.8201

                     13                     14                     15
                      A                      A                      A
 Frequencies --    780.6676               829.0762               866.9207
 Red. masses --      5.4206                 1.3641                 5.9935
 Frc consts  --      1.9464                 0.5524                 2.6539
 IR Inten    --     20.7701                 0.2613                19.3302

                     16                     17                     18
                      A                      A                      A
 Frequencies --    899.2337               936.6082              1049.8989
 Red. masses --      1.3254                 1.1908                 2.0132
 Frc consts  --      0.6314                 0.6155                 1.3075
 IR Inten    --      3.9138                 0.2213                 9.9938

                     19                     20                     21
                      A                      A                      A
 Frequencies --   1105.4384              1168.2646              1173.3493
 Red. masses --      1.9916                 1.1517                 1.1492
 Frc consts  --      1.4339                 0.9261                 0.9322
 IR Inten    --     66.6134                44.1597                35.3646

                     22                     23                     24
                      A                      A                      A
 Frequencies --   1215.2911              1276.5233              1320.2826
 Red. masses --      1.3190                 2.8984                 2.5384
 Frc consts  --      1.1478                 2.7827                 2.6070
 IR Inten    --     55.0056                81.3635               201.2585

                     25                     26                     27
                      A                      A                      A
 Frequencies --   1372.2987              1491.5332              1502.9433
 Red. masses --      1.3974                 5.7994                 2.5307
 Frc consts  --      1.5505                 7.6016                 3.3681
 IR Inten    --     32.6394                12.4098                33.2345

                     28                     29                     30
                      A                      A                      A
 Frequencies --   1553.3577              1661.4299              1664.8307
 Red. masses --      3.4542                 6.9136                 6.2096
 Frc consts  --      4.9106                11.2440                10.1404
 IR Inten    --    118.1866                35.2154                21.5826

                     31                     32                     33
                      A                      A                      A
 Frequencies --   3204.8182              3228.5009              3240.8134
 Red. masses --      1.0897                 1.0875                 1.0929
 Frc consts  --      6.5942                 6.6784                 6.7629
 IR Inten    --      7.0759                 2.4452                 5.4230

                     34                     35                     36
                      A                      A                      A
 Frequencies --   3250.9192              3818.4482              3873.3589
 Red. masses --      1.0987                 1.0652                 1.0662
 Frc consts  --      6.8413                 9.1507                 9.4250
 IR Inten    --      5.1104               112.7210                91.3361

 - Thermochemistry -
 -------------------
 Temperature   298.150 Kelvin.  Pressure   1.00000 Atm.
 Atom     1 has atomic number  6 and mass  12.00000

 Molecular mass:   110.03678 amu.
 Principal axes and moments of inertia in atomic units:
                           1         2         3
     Eigenvalues --   528.66714 800.674091329.34120
           X            0.99974   0.02294   0.00002
           Y           -0.02294   0.99974  -0.00000
           Z           -0.00002  -0.00000   1.00000
 This molecule is an asymmetric top.
 Rotational symmetry number  1.
 Warning -- assumption of classical behavior for rotation
           may cause significant error
 Rotational temperatures (Kelvin)      0.16383     0.10818     0.06516
 Rotational constants (GHZ):           3.41376     2.25403     1.35762
 Zero-point vibrational energy     286448.8 (Joules/Mol)
                                   68.46291 (Kcal/Mol)
 Warning -- explicit consideration of  10 degrees of freedom as
           vibrations may cause significant error
 Vibrational temperatures:    224.85   278.07   420.70   443.72   593.84
          (Kelvin)            637.55   655.84   801.89   802.44   837.92
                             1008.29  1072.47  1123.21  1192.86  1247.31
                             1293.80  1347.57  1510.57  1590.48  1680.87
                             1688.19  1748.53  1836.63  1899.59  1974.43
                             2145.98  2162.40  2234.94  2390.43  2395.32
                             4611.02  4645.09  4662.81  4677.35  5493.90
                             5572.90

 Zero-point correction=                           0.109103 (Hartree/Particle)
 Thermal correction to Energy=                    0.116027
 Thermal correction to Enthalpy=                  0.116971
 Thermal correction to Gibbs Free Energy=         0.078353
 Sum of electronic and zero-point Energies=           -381.861531
 Sum of electronic and thermal Energies=              -381.854607
 Sum of electronic and thermal Enthalpies=            -381.853662
 Sum of electronic and thermal Free Energies=         -381.892280

                     E (Thermal)             CV                S
                      KCal/Mol        Cal/Mol-Kelvin    Cal/Mol-Kelvin
 Total                   72.808             26.852             81.278
 Electronic               0.000              0.000              0.000
 Translational            0.889              2.981             40.003
 Rotational               0.889              2.981             27.822
 Vibrational             71.030             20.890             13.452
 Vibration     1          0.620              1.896              2.594
 Vibration     2          0.635              1.849              2.196
 Vibration     3          0.688              1.688              1.460
 Vibration     4          0.698              1.658              1.371
 Vibration     5          0.777              1.443              0.917
 Vibration     6          0.803              1.376              0.817
 Vibration     7          0.814              1.348              0.778
 Vibration     8          0.913              1.124              0.529
 Vibration     9          0.913              1.123              0.528
 Vibration    10          0.939              1.069              0.481

                           ! Non-Optimized Parameters !
 Normal termination of Gaussian 16 at Wed Feb 15 18:26:10 2017.
