 Gaussian 09, Revision E.01,
 Gaussian 09:  ES64L-G09RevE.01 30-Nov-2015

 -------------------------------
 #mp2/6-311++g(2df,2pd) opt freq
 -------------------------------

 ---------
 CH3Cl_C3v
 ---------
 Symbolic Z-matrix:
 Charge =  0 Multiplicity = 1

 SCF Done:  E(RHF) =  -499.139878570     A.U. after   11 cycles
 E2 =    -0.3677674277D+00 EUMP2 =    -0.49950764599741D+03
 SCF Done:  E(RHF) =  -499.140086588     A.U. after    8 cycles
 E2 =    -0.3676139858D+00 EUMP2 =    -0.49950770057422D+03
 SCF Done:  E(RHF) =  -499.140100893     A.U. after    7 cycles
 E2 =    -0.3676016755D+00 EUMP2 =    -0.49950770256890D+03
 Optimization completed.
    -- Stationary point found.
 Normal termination of Gaussian 09 at Tue Jan 31 21:33:20 2017.

 ----------------------------------------------------------------------
 #N Geom=AllCheck Guess=TCheck SCRF=Check GenChk RMP2(FC)/6-311++G(2df,
 2pd) Freq
 ----------------------------------------------------------------------

 Structure from the checkpoint file:  "/scratch-local/aubhfc.CH3ClC3vcomG09.68334/Gau-520.chk"
 ---------
 CH3Cl_C3v
 ---------
 Charge =  0 Multiplicity = 1

                         Standard orientation:
 ---------------------------------------------------------------------
 Center     Atomic      Atomic             Coordinates (Angstroms)
 Number     Number       Type             X           Y           Z
 ---------------------------------------------------------------------
      1          6           0        0.000000    0.000000   -1.121829
      2         17           0        0.000000    0.000000    0.655162
      3          1           0        0.000000    1.026137   -1.468927
      4          1           0        0.888661   -0.513069   -1.468927
      5          1           0       -0.888661   -0.513069   -1.468927
 ---------------------------------------------------------------------

 SCF Done:  E(RHF) =  -499.140100893     A.U. after    1 cycles
 E2 =    -0.3676016745D+00 EUMP2 =    -0.49950770256794D+03
 E2 =    -0.3676016745D+00 EUMP2 =    -0.49950770256794D+03

 The electronic state is 1-A1.
 Alpha  occ. eigenvalues -- -104.82450 -11.28798 -10.55021  -8.01795  -8.01601
 Alpha  occ. eigenvalues --   -8.01601  -1.12969  -0.91586  -0.61913  -0.61913
 Alpha  occ. eigenvalues --   -0.54786  -0.43599  -0.43599
 Alpha virt. eigenvalues --    0.03850   0.07031   0.07031   0.08566   0.13894
 Alpha virt. eigenvalues --    0.15288   0.15288   0.15677   0.15677   0.17506
 Alpha virt. eigenvalues --    0.23978   0.26114   0.27328   0.27328   0.34997

 Mulliken charges:
               1
     1  C    0.172279
     2  Cl  -0.144440
     3  H   -0.009280
     4  H   -0.009280
     5  H   -0.009280
 Sum of Mulliken charges =   0.00000

 Dipole moment (field-independent basis, Debye):
    X=              0.0000    Y=             -0.0000    Z=             -2.1301  Tot=              2.1301
 Quadrupole moment (field-independent basis, Debye-Ang):
   XX=            -20.0717   YY=            -20.0717   ZZ=            -18.2526
   XY=             -0.0000   XZ=             -0.0000   YZ=             -0.0000

  Exact polarizability:  22.219   0.000  22.219   0.000  -0.000  32.401
 Approx polarizability:  20.639  -0.000  20.639   0.000  -0.000  27.531

                      1                      2                      3
                     A1                      E                      E
 Frequencies --    770.4054              1042.3933              1042.3933
 Red. masses --      7.0347                 1.1748                 1.1748
 Frc consts  --      2.4600                 0.7521                 0.7521
 IR Inten    --     23.4964                 2.5369                 2.5369

                      4                      5                      6
                     A1                      E                      E
 Frequencies --   1397.7255              1502.0492              1502.0492
 Red. masses --      1.1342                 1.0531                 1.0531
 Frc consts  --      1.3055                 1.3998                 1.3998
 IR Inten    --     13.4004                 5.1715                 5.1715

                      7                      8                      9
                     A1                      E                      E
 Frequencies --   3120.4156              3231.8083              3231.8083
 Red. masses --      1.0282                 1.1081                 1.1081
 Frc consts  --      5.8988                 6.8190                 6.8190
 IR Inten    --     22.0325                 2.7876                 2.7876

 - Thermochemistry -
 -------------------
 Temperature   298.150 Kelvin.  Pressure   1.00000 Atm.
 Atom     1 has atomic number  6 and mass  12.00000

 Molecular mass:    49.99233 amu.
 Principal axes and moments of inertia in atomic units:
                           1         2         3
     Eigenvalues --    11.36881 134.72250 134.72250
           X            0.00000   0.42690   0.90430
           Y            0.00000   0.90430  -0.42690
           Z            1.00000  -0.00000  -0.00000
 This molecule is a prolate symmetric top.
 Rotational symmetry number  3.
 Rotational temperatures (Kelvin)      7.61855     0.64291     0.64291
 Rotational constants (GHZ):         158.74497    13.39599    13.39599
 Zero-point vibrational energy     100731.8 (Joules/Mol)
                                   24.07549 (Kcal/Mol)
 Vibrational temperatures:   1108.44  1499.77  1499.77  2011.01  2161.11
          (Kelvin)           2161.11  4489.58  4649.85  4649.85

 Zero-point correction=                           0.038367 (Hartree/Particle)
 Thermal correction to Energy=                    0.041366
 Thermal correction to Enthalpy=                  0.042311
 Thermal correction to Gibbs Free Energy=         0.015769
 Sum of electronic and zero-point Energies=           -499.469336
 Sum of electronic and thermal Energies=              -499.466336
 Sum of electronic and thermal Enthalpies=            -499.465392
 Sum of electronic and thermal Free Energies=         -499.491934

                     E (Thermal)             CV                S
                      KCal/Mol        Cal/Mol-Kelvin    Cal/Mol-Kelvin
 Total                   25.958              7.584             55.862
 Electronic               0.000              0.000              0.000
 Translational            0.889              2.981             37.651
 Rotational               0.889              2.981             17.779
 Vibrational             24.180              1.623              0.432

 Optimization completed.
    -- Stationary point found.
 Normal termination of Gaussian 09 at Tue Jan 31 21:35:35 2017.
