 Gaussian 09, Revision E.01,
 Gaussian 09:  ES64L-G09RevE.01 30-Nov-2015

 -------------------------------
 #mp2/6-311++g(2df,2pd) opt freq
 -------------------------------

 --------
 CH3OH_Cs
 --------
 Symbolic Z-matrix:
 Charge =  0 Multiplicity = 1

 SCF Done:  E(RHF) =  -115.087644882     A.U. after   11 cycles
 E2 =    -0.4279597163D+00 EUMP2 =    -0.11551560459860D+03
 SCF Done:  E(RHF) =  -115.088107510     A.U. after    9 cycles
 E2 =    -0.4276543976D+00 EUMP2 =    -0.11551576190797D+03
 SCF Done:  E(RHF) =  -115.088130522     A.U. after    7 cycles
 E2 =    -0.4276385900D+00 EUMP2 =    -0.11551576911243D+03
 Optimization completed.
    -- Stationary point found.
 Normal termination of Gaussian 09 at Tue Jan 31 22:38:50 2017.

 ----------------------------------------------------------------------
 #N Geom=AllCheck Guess=TCheck SCRF=Check GenChk RMP2(FC)/6-311++G(2df,
 2pd) Freq
 ----------------------------------------------------------------------

 Structure from the checkpoint file:  "/scratch-local/aubhfc.CH3OHCscomG09.68340/Gau-11032.chk"
 --------
 CH3OH_Cs
 --------
 Charge =  0 Multiplicity = 1

                         Standard orientation:
 ---------------------------------------------------------------------
 Center     Atomic      Atomic             Coordinates (Angstroms)
 Number     Number       Type             X           Y           Z
 ---------------------------------------------------------------------
      1          6           0        0.046426    0.663307    0.000000
      2          1           0       -0.435638    1.073324    0.887988
      3          1           0        1.085819    0.973586    0.000000
      4          1           0       -0.435638    1.073324   -0.887988
      5          8           0        0.046426   -0.755787    0.000000
      6          1           0       -0.864503   -1.053782    0.000000
 ---------------------------------------------------------------------

 SCF Done:  E(RHF) =  -115.088130522     A.U. after    1 cycles
 E2 =    -0.4276385912D+00 EUMP2 =    -0.11551576911355D+03
 E2 =    -0.4276385912D+00 EUMP2 =    -0.11551576911355D+03

 The electronic state is 1-A'.
 Alpha  occ. eigenvalues --  -20.55810 -11.26912  -1.35884  -0.92725  -0.69276
 Alpha  occ. eigenvalues --   -0.62183  -0.59431  -0.50500  -0.45250
 Alpha virt. eigenvalues --    0.03923   0.06356   0.07188   0.07947   0.12694
 Alpha virt. eigenvalues --    0.14669   0.15921   0.18207   0.27622   0.28378
 Alpha virt. eigenvalues --    0.28675   0.28940   0.30987   0.32531   0.34018

 Mulliken charges:
               1
     1  C    0.210143
     2  H   -0.026989
     3  H   -0.003588
     4  H   -0.026989
     5  O   -0.323585
     6  H    0.171008
 Sum of Mulliken charges =  -0.00000

 Dipole moment (field-independent basis, Debye):
    X=             -1.4808    Y=              1.1289    Z=             -0.0000  Tot=              1.8620
 Quadrupole moment (field-independent basis, Debye-Ang):
   XX=            -11.6499   YY=            -13.4412   ZZ=            -13.7203
   XY=              2.1836   XZ=             -0.0000   YZ=              0.0000

  Exact polarizability:  18.890   0.609  21.075   0.000  -0.000  18.395
 Approx polarizability:  16.022   0.444  15.896  -0.000   0.000  14.789

                      1                      2                      3
                     A"                     A'                     A'
 Frequencies --    293.6283              1064.6847              1098.0677
 Red. masses --      1.0700                 1.8723                 1.9208
 Frc consts  --      0.0544                 1.2505                 1.3646
 IR Inten    --    112.6946               114.0039                 7.0776

                      4                      5                      6
                     A"                     A'                     A'
 Frequencies --   1186.3311              1377.1924              1492.6565
 Red. masses --      1.2684                 1.2862                 1.1396
 Frc consts  --      1.0517                 1.4373                 1.4960
 IR Inten    --      0.4883                21.1463                 3.6982

                      7                      8                      9
                     A"                     A'                     A'
 Frequencies --   1519.9082              1532.5177              3065.2691
 Red. masses --      1.0461                 1.0409                 1.0340
 Frc consts  --      1.4239                 1.4404                 5.7243
 IR Inten    --      3.0034                 4.9174                54.1700

                     10                     11                     12
                     A"                     A'                     A'
 Frequencies --   3136.8772              3197.3090              3908.0649
 Red. masses --      1.1059                 1.1008                 1.0667
 Frc consts  --      6.4113                 6.6300                 9.5990
 IR Inten    --     41.8330                19.5224                43.0416

 - Thermochemistry -
 -------------------
 Temperature   298.150 Kelvin.  Pressure   1.00000 Atm.
 Atom     1 has atomic number  6 and mass  12.00000

 Molecular mass:    32.02621 amu.
 Principal axes and moments of inertia in atomic units:
                           1         2         3
     Eigenvalues --    13.97088  72.56348  75.18275
           X            0.05436   0.99852   0.00000
           Y            0.99852  -0.05436   0.00000
           Z            0.00000  -0.00000   1.00000
 This molecule is an asymmetric top.
 Rotational symmetry number  1.
 Rotational temperatures (Kelvin)      6.19960     1.19363     1.15204
 Rotational constants (GHZ):         129.17877    24.87121    24.00472
 Zero-point vibrational energy     136808.0 (Joules/Mol)
                                   32.69789 (Kcal/Mol)
 Warning -- explicit consideration of   1 degrees of freedom as
           vibrations may cause significant error
 Vibrational temperatures:    422.47  1531.84  1579.87  1706.86  1981.47
          (Kelvin)           2147.60  2186.81  2204.95  4410.23  4513.26
                             4600.21  5622.83

 Zero-point correction=                           0.052107 (Hartree/Particle)
 Thermal correction to Energy=                    0.055462
 Thermal correction to Enthalpy=                  0.056406
 Thermal correction to Gibbs Free Energy=         0.029332
 Sum of electronic and zero-point Energies=           -115.463662
 Sum of electronic and thermal Energies=              -115.460307
 Sum of electronic and thermal Enthalpies=            -115.459363
 Sum of electronic and thermal Free Energies=         -115.486437

                     E (Thermal)             CV                S
                      KCal/Mol        Cal/Mol-Kelvin    Cal/Mol-Kelvin
 Total                   34.803              8.783             56.981
 Electronic               0.000              0.000              0.000
 Translational            0.889              2.981             36.324
 Rotational               0.889              2.981             18.972
 Vibrational             33.025              2.821              1.685
 Vibration     1          0.688              1.686              1.453

 Optimization completed.
    -- Stationary point found.
 Normal termination of Gaussian 09 at Tue Jan 31 22:41:18 2017.
