 Gaussian 16, Revision A.03,
 Gaussian 16:  EM64L-G16RevA.03 25-Dec-2016

 ------------------------------------------------------------
 #p M06/6-31+G(d,p) SCRF=(Solvent=Acetonitrile) opt td=root=1
 ------------------------------------------------------------

 -----------------------------------
 ADNOQZQZUQQVRY-UHFFFAOYSA-N_S1_solv
 -----------------------------------
 Symbolic Z-matrix:
 Charge =  0 Multiplicity = 1

 SCF Done:  E(RM06) =  -929.208484336     A.U. after   17 cycles
 Total Energy, E(TD-HF/TD-DFT) =  -929.098844473
 SCF Done:  E(RM06) =  -929.204338861     A.U. after   16 cycles
 Total Energy, E(TD-HF/TD-DFT) =  -929.105729853
 SCF Done:  E(RM06) =  -929.200769409     A.U. after   15 cycles
 Total Energy, E(TD-HF/TD-DFT) =  -929.106451998
 SCF Done:  E(RM06) =  -929.200536850     A.U. after   13 cycles
 Total Energy, E(TD-HF/TD-DFT) =  -929.106474130
 SCF Done:  E(RM06) =  -929.200508956     A.U. after   14 cycles
 Total Energy, E(TD-HF/TD-DFT) =  -929.106478973
 SCF Done:  E(RM06) =  -929.200559844     A.U. after   11 cycles

 Excitation energies and oscillator strengths:

 Excited State   1:      Singlet-A      2.5601 eV  484.30 nm  f=0.0206  <S**2>=0.000
      47 -> 49         0.12727
      47 -> 50         0.17199
      48 -> 49         0.47501
      48 -> 50         0.47495
 This state for optimization and/or second-order correction.
 Total Energy, E(TD-HF/TD-DFT) =  -929.106479452
 Copying the excited state density for this state as the 1-particle RhoCI density.

 Excited State   2:      Singlet-A      3.1946 eV  388.10 nm  f=0.2141  <S**2>=0.000
      48 -> 49        -0.49918
      48 -> 50         0.49526

 Excited State   3:      Singlet-A      4.6038 eV  269.31 nm  f=0.0000  <S**2>=0.000
      46 -> 49        -0.61332
      46 -> 50         0.34511

 Optimization completed.
    -- Stationary point found.

                         Standard orientation:
 ---------------------------------------------------------------------
 Center     Atomic      Atomic             Coordinates (Angstroms)
 Number     Number       Type             X           Y           Z
 ---------------------------------------------------------------------
      1          6           0       -3.413833    0.339892    0.000052
      2          6           0       -1.978473    0.660191   -0.000093
      3          6           0       -1.301177    1.829178   -0.000229
      4          6           0        0.136233    1.710002   -0.000206
      5          6           0        0.626398    0.432692   -0.000046
      6          6           0        1.965897   -0.035476   -0.000019
      7          6           0        2.276422   -1.489963    0.000148
      8          7           0        2.989050    0.895773    0.640849
      9          7           0        2.989014    0.895660   -0.641135
     10         16           0       -0.787422   -0.684231    0.000083
     11          8           0       -0.863983   -1.423186    1.261095
     12          8           0       -0.863939   -1.423487   -1.260756
     13          1           0       -3.674726   -0.260667   -0.881302
     14          1           0       -3.674854   -0.258947    0.882550
     15          1           0       -4.011834    1.253846   -0.000851
     16          1           0       -1.796931    2.794685   -0.000362
     17          1           0        0.792136    2.575257   -0.000316
     18          1           0        1.857266   -1.986189    0.885948
     19          1           0        3.359103   -1.629498   -0.000150
     20          1           0        1.856714   -1.986539   -0.885190
 ---------------------------------------------------------------------

 The electronic state is 1-A.
 Alpha  occ. eigenvalues --  -89.29922 -19.26503 -19.26502 -14.53058 -14.53011
 Alpha  occ. eigenvalues --  -10.36555 -10.32226 -10.32182 -10.31547 -10.30609
 Alpha  occ. eigenvalues --  -10.27906 -10.27143  -8.27026  -6.18777  -6.18691
 Alpha  occ. eigenvalues --   -6.18626  -1.16182  -1.13891  -1.05949  -0.91415
 Alpha  occ. eigenvalues --   -0.83549  -0.79014  -0.74417  -0.72458  -0.65935
 Alpha  occ. eigenvalues --   -0.65678  -0.60823  -0.58360  -0.55479  -0.51534
 Alpha  occ. eigenvalues --   -0.50464  -0.49230  -0.48308  -0.46839  -0.45095
 Alpha  occ. eigenvalues --   -0.44730  -0.44507  -0.42796  -0.41805  -0.41026
 Alpha  occ. eigenvalues --   -0.39463  -0.38842  -0.37203  -0.37117  -0.34518
 Alpha  occ. eigenvalues --   -0.32671  -0.32135  -0.25286
 Alpha virt. eigenvalues --   -0.10001  -0.08997  -0.02174  -0.01500  -0.01113
 Alpha virt. eigenvalues --   -0.00229   0.00309   0.00604   0.00856   0.01220
 Alpha virt. eigenvalues --    0.01612   0.02451   0.03317   0.03993   0.04064

 Mulliken charges:
               1
     1  C   -0.298964
     2  C   -0.132825
     3  C   -0.303175
     4  C    0.473225
     5  C   -1.131829
     6  C    0.120873
     7  C   -0.124760
     8  N    0.020773
     9  N    0.020772
    10  S    0.864708
    11  O   -0.559590
    12  O   -0.559650
    13  H    0.202713
    14  H    0.202758
    15  H    0.202314
    16  H    0.206684
    17  H    0.205453
    18  H    0.201515
    19  H    0.187507
    20  H    0.201497
 Sum of Mulliken charges =  -0.00000

 Dipole moment (field-independent basis, Debye):
    X=             -2.0526    Y=              4.3946    Z=             -0.0003  Tot=              4.8503
 Quadrupole moment (field-independent basis, Debye-Ang):
   XX=            -68.6746   YY=            -74.3190   ZZ=            -86.4798
   XY=            -12.5417   XZ=              0.0008   YZ=             -0.0013

 Normal termination of Gaussian 16 at Fri Aug  3 01:52:09 2018.
