 Gaussian 16, Revision A.03,
 Gaussian 16:  EM64L-G16RevA.03 25-Dec-2016

 ----------------------
 #p M06/6-31+G(d,p) opt
 ----------------------

 ---------------------------------------
 ADNOQZQZUQQVRY-UHFFFAOYSA-N_cat-rad_vac
 ---------------------------------------
 Symbolic Z-matrix:
 Charge =  1 Multiplicity = 2

 SCF Done:  E(UM06) =  -928.877663199     A.U. after   23 cycles
 SCF Done:  E(UM06) =  -928.886287458     A.U. after   17 cycles
 SCF Done:  E(UM06) =  -928.887732388     A.U. after   19 cycles
 SCF Done:  E(UM06) =  -928.887964140     A.U. after   18 cycles
 SCF Done:  E(UM06) =  -928.888038126     A.U. after   18 cycles
 SCF Done:  E(UM06) =  -928.888046466     A.U. after   16 cycles
 SCF Done:  E(UM06) =  -928.888047366     A.U. after   15 cycles
 Optimization completed.
    -- Stationary point found.

                         Standard orientation:
 ---------------------------------------------------------------------
 Center     Atomic      Atomic             Coordinates (Angstroms)
 Number     Number       Type             X           Y           Z
 ---------------------------------------------------------------------
      1          6           0       -3.404927    0.337281    0.000061
      2          6           0       -1.974880    0.646596   -0.000099
      3          6           0       -1.290712    1.836085   -0.000247
      4          6           0        0.126581    1.727362   -0.000232
      5          6           0        0.615379    0.430228   -0.000070
      6          6           0        1.934524   -0.063865   -0.000017
      7          6           0        2.297728   -1.504502    0.000148
      8          7           0        2.966225    0.926027    0.594226
      9          7           0        2.966232    0.925904   -0.594447
     10         16           0       -0.791874   -0.712936    0.000076
     11          8           0       -0.843298   -1.404160    1.273870
     12          8           0       -0.843283   -1.404492   -1.273534
     13          1           0       -3.656870   -0.277296   -0.877545
     14          1           0       -3.656930   -0.275560    0.878883
     15          1           0       -4.016867    1.241811   -0.000798
     16          1           0       -1.795450    2.798578   -0.000387
     17          1           0        0.769599    2.604804   -0.000347
     18          1           0        1.893580   -2.003440    0.889499
     19          1           0        3.382865   -1.627619    0.000019
     20          1           0        1.893345   -2.003704   -0.888947
 ---------------------------------------------------------------------

 The electronic state is 2-A.
 Alpha  occ. eigenvalues --  -89.46597 -19.42751 -19.42751 -14.73826 -14.73740
 Alpha  occ. eigenvalues --  -10.56526 -10.52854 -10.52633 -10.51741 -10.49921
 Alpha  occ. eigenvalues --  -10.44146 -10.43253  -8.43634  -6.35356  -6.35318
 Alpha  occ. eigenvalues --   -6.35267  -1.38579  -1.32817  -1.22577  -1.10622
 Alpha  occ. eigenvalues --   -1.02900  -0.97562  -0.92364  -0.89995  -0.85076
 Alpha  occ. eigenvalues --   -0.83661  -0.80162  -0.76595  -0.74758  -0.69624
 Alpha  occ. eigenvalues --   -0.68666  -0.66396  -0.66345  -0.65125  -0.63470
 Alpha  occ. eigenvalues --   -0.62027  -0.62023  -0.61473  -0.59546  -0.58582
 Alpha  occ. eigenvalues --   -0.57631  -0.57571  -0.53278  -0.52963  -0.50931
 Alpha  occ. eigenvalues --   -0.50293  -0.49593  -0.43908
 Alpha virt. eigenvalues --   -0.28997  -0.25988  -0.17067  -0.15836  -0.15213
 Alpha virt. eigenvalues --   -0.13834  -0.13185  -0.12464  -0.11855  -0.11428
 Alpha virt. eigenvalues --   -0.11242  -0.11226  -0.10502  -0.09704  -0.09575

  Beta  occ. eigenvalues --  -89.46606 -19.42736 -19.42736 -14.73595 -14.73506
  Beta  occ. eigenvalues --  -10.56418 -10.52711 -10.52241 -10.51525 -10.49927
  Beta  occ. eigenvalues --  -10.44157 -10.43257  -8.43644  -6.35371  -6.35326
  Beta  occ. eigenvalues --   -6.35284  -1.37828  -1.32773  -1.22532  -1.09947
  Beta  occ. eigenvalues --   -1.02229  -0.96981  -0.92196  -0.89721  -0.84547
  Beta  occ. eigenvalues --   -0.82697  -0.79478  -0.76201  -0.74264  -0.69360
  Beta  occ. eigenvalues --   -0.68219  -0.66185  -0.65811  -0.64942  -0.62731
  Beta  occ. eigenvalues --   -0.61699  -0.60982  -0.60710  -0.59330  -0.58450
  Beta  occ. eigenvalues --   -0.57520  -0.56178  -0.52940  -0.52921  -0.50644
  Beta  occ. eigenvalues --   -0.49250  -0.48154
  Beta virt. eigenvalues --   -0.35703  -0.26565  -0.25520  -0.15700  -0.15232
  Beta virt. eigenvalues --   -0.15060  -0.13544  -0.12864  -0.12274  -0.11721
  Beta virt. eigenvalues --   -0.11158  -0.11073  -0.10506  -0.10393  -0.09433

 Mulliken charges and spin densities:
               1          2
     1  C   -0.213331  -0.010350
     2  C   -0.146535   0.326283
     3  C   -0.320117   0.003853
     4  C    0.495106   0.195861
     5  C   -1.160053   0.121471
     6  C    0.070977   0.087875
     7  C   -0.052425  -0.021907
     8  N    0.220959   0.125824
     9  N    0.220952   0.125823
    10  S    0.828083  -0.016446
    11  O   -0.419404   0.007014
    12  O   -0.419445   0.007006
    13  H    0.249456   0.021210
    14  H    0.249508   0.021251
    15  H    0.223349  -0.000605
    16  H    0.236197  -0.001116
    17  H    0.232562  -0.009638
    18  H    0.244324   0.008514
    19  H    0.215521  -0.000432
    20  H    0.244314   0.008510
 Sum of Mulliken charges =   1.00000   1.00000

 Dipole moment (field-independent basis, Debye):
    X=             -0.1565    Y=              4.9475    Z=             -0.0003  Tot=              4.9499
 Quadrupole moment (field-independent basis, Debye-Ang):
   XX=            -37.3740   YY=            -61.2381   ZZ=            -79.2292
   XY=             -8.8766   XZ=             -0.0006   YZ=             -0.0022

 Normal termination of Gaussian 16 at Fri Aug  3 01:31:45 2018.
