 Gaussian 16, Revision A.03,
 Gaussian 16:  EM64L-G16RevA.03 25-Dec-2016

 --------------------------------------------------
 #p M06/6-31+G(d,p) SCRF=(Solvent=Acetonitrile) opt
 --------------------------------------------------

 -----------------------------------
 ADNOQZQZUQQVRY-UHFFFAOYSA-N_S0_solv
 -----------------------------------
 Symbolic Z-matrix:
 Charge =  0 Multiplicity = 1

 SCF Done:  E(RM06) =  -929.208484336     A.U. after   17 cycles
 SCF Done:  E(RM06) =  -929.208737939     A.U. after   14 cycles
 SCF Done:  E(RM06) =  -929.208753512     A.U. after   12 cycles
 SCF Done:  E(RM06) =  -929.208754384     A.U. after   12 cycles
 Optimization completed.
    -- Stationary point found.

                         Standard orientation:
 ---------------------------------------------------------------------
 Center     Atomic      Atomic             Coordinates (Angstroms)
 Number     Number       Type             X           Y           Z
 ---------------------------------------------------------------------
      1          6           0       -3.429924    0.298296    0.000147
      2          6           0       -1.995264    0.653892   -0.000077
      3          6           0       -1.332737    1.815280   -0.000184
      4          6           0        0.134054    1.706191   -0.000174
      5          6           0        0.619226    0.453317   -0.000043
      6          6           0        2.001238   -0.027135    0.000006
      7          6           0        2.314607   -1.489381    0.000196
      8          7           0        2.965223    0.905053    0.613605
      9          7           0        2.965191    0.904918   -0.613846
     10         16           0       -0.783427   -0.669497    0.000019
     11          8           0       -0.848082   -1.424772    1.257439
     12          8           0       -0.848062   -1.424978   -1.257276
     13          1           0       -3.685514   -0.300293   -0.883166
     14          1           0       -3.685779   -0.298067    0.884891
     15          1           0       -4.042684    1.203443   -0.001073
     16          1           0       -1.829518    2.780751   -0.000277
     17          1           0        0.766266    2.589565   -0.000245
     18          1           0        1.902062   -1.979946    0.888949
     19          1           0        3.397283   -1.637838    0.000039
     20          1           0        1.901771   -1.980220   -0.888273
 ---------------------------------------------------------------------

 The electronic state is 1-A.
 Alpha  occ. eigenvalues --  -89.29733 -19.26254 -19.26253 -14.52704 -14.52639
 Alpha  occ. eigenvalues --  -10.36428 -10.32227 -10.32117 -10.31476 -10.30714
 Alpha  occ. eigenvalues --  -10.27951 -10.27103  -8.26845  -6.18595  -6.18509
 Alpha  occ. eigenvalues --   -6.18444  -1.18249  -1.15760  -1.05454  -0.91490
 Alpha  occ. eigenvalues --   -0.83264  -0.78874  -0.74216  -0.72516  -0.66296
 Alpha  occ. eigenvalues --   -0.65565  -0.61111  -0.58528  -0.56230  -0.51463
 Alpha  occ. eigenvalues --   -0.50275  -0.50113  -0.48352  -0.47034  -0.45047
 Alpha  occ. eigenvalues --   -0.44705  -0.44279  -0.43301  -0.41879  -0.40967
 Alpha  occ. eigenvalues --   -0.39418  -0.39151  -0.36915  -0.36847  -0.34144
 Alpha  occ. eigenvalues --   -0.32626  -0.31924  -0.25890
 Alpha virt. eigenvalues --   -0.09260  -0.07979  -0.02159  -0.01507  -0.01128
 Alpha virt. eigenvalues --   -0.00216   0.00316   0.00571   0.00903   0.01399
 Alpha virt. eigenvalues --    0.01959   0.02478   0.03330   0.03992   0.04378

 Mulliken charges:
               1
     1  C   -0.296518
     2  C   -0.110803
     3  C   -0.303462
     4  C    0.496242
     5  C   -1.064087
     6  C    0.080739
     7  C   -0.152146
     8  N    0.031502
     9  N    0.031495
    10  S    0.807837
    11  O   -0.564521
    12  O   -0.564564
    13  H    0.202935
    14  H    0.203003
    15  H    0.201842
    16  H    0.206508
    17  H    0.206103
    18  H    0.200359
    19  H    0.187193
    20  H    0.200343
 Sum of Mulliken charges =  -0.00000

 Dipole moment (field-independent basis, Debye):
    X=             -1.7735    Y=              4.6351    Z=              0.0001  Tot=              4.9628
 Quadrupole moment (field-independent basis, Debye-Ang):
   XX=            -67.3238   YY=            -74.4558   ZZ=            -86.4059
   XY=            -12.4005   XZ=              0.0002   YZ=             -0.0011

 Normal termination of Gaussian 16 at Thu Aug  2 19:54:36 2018.
