 Gaussian 16, Revision A.03,
 Gaussian 16:  EM64L-G16RevA.03 25-Dec-2016

 ----------------------
 #p M06/6-31+G(d,p) opt
 ----------------------

 ----------------------------------
 ADNOQZQZUQQVRY-UHFFFAOYSA-N_S0_vac
 ----------------------------------
 Symbolic Z-matrix:
 Charge =  0 Multiplicity = 1

 SCF Done:  E(RM06) =  -929.165829072     A.U. after   18 cycles
 SCF Done:  E(RM06) =  -929.189355019     A.U. after   15 cycles
 SCF Done:  E(RM06) =  -929.194206312     A.U. after   15 cycles
 SCF Done:  E(RM06) =  -929.195084490     A.U. after   15 cycles
 SCF Done:  E(RM06) =  -929.195845974     A.U. after   16 cycles
 SCF Done:  E(RM06) =  -929.196405725     A.U. after   16 cycles
 SCF Done:  E(RM06) =  -929.196794014     A.U. after   16 cycles
 SCF Done:  E(RM06) =  -929.196922353     A.U. after   15 cycles
 SCF Done:  E(RM06) =  -929.196937954     A.U. after   12 cycles
 SCF Done:  E(RM06) =  -929.196948725     A.U. after   13 cycles
 SCF Done:  E(RM06) =  -929.196951006     A.U. after   13 cycles
 SCF Done:  E(RM06) =  -929.196952081     A.U. after   12 cycles
 SCF Done:  E(RM06) =  -929.196953362     A.U. after   13 cycles
 SCF Done:  E(RM06) =  -929.196954618     A.U. after   13 cycles
 SCF Done:  E(RM06) =  -929.196955826     A.U. after   11 cycles
 SCF Done:  E(RM06) =  -929.196956215     A.U. after   11 cycles
 SCF Done:  E(RM06) =  -929.196956263     A.U. after   12 cycles
 SCF Done:  E(RM06) =  -929.196956339     A.U. after   11 cycles
 Optimization completed.
    -- Stationary point found.

                         Standard orientation:
 ---------------------------------------------------------------------
 Center     Atomic      Atomic             Coordinates (Angstroms)
 Number     Number       Type             X           Y           Z
 ---------------------------------------------------------------------
      1          6           0       -3.422311    0.293774    0.000209
      2          6           0       -1.988904    0.654492   -0.000062
      3          6           0       -1.329419    1.817685    0.000015
      4          6           0        0.137105    1.709851    0.000038
      5          6           0        0.617993    0.455547   -0.000015
      6          6           0        1.995765   -0.029137    0.000003
      7          6           0        2.296796   -1.494617    0.000250
      8          7           0        2.966525    0.898073    0.613309
      9          7           0        2.966543    0.897975   -0.613423
     10         16           0       -0.781954   -0.674828   -0.000105
     11          8           0       -0.847107   -1.409605    1.262774
     12          8           0       -0.847145   -1.409484   -1.263042
     13          1           0       -3.668705   -0.310583   -0.882289
     14          1           0       -3.669227   -0.307038    0.884986
     15          1           0       -4.047253    1.191446   -0.001785
     16          1           0       -1.828822    2.782847    0.000005
     17          1           0        0.774924    2.589545    0.000114
     18          1           0        1.876399   -1.981048    0.887980
     19          1           0        3.378784   -1.651510   -0.000240
     20          1           0        1.875557   -1.981601   -0.886774
 ---------------------------------------------------------------------

 The electronic state is 1-A.
 Alpha  occ. eigenvalues --  -89.29083 -19.25430 -19.25430 -14.52679 -14.52613
 Alpha  occ. eigenvalues --  -10.36369 -10.32357 -10.32254 -10.31650 -10.31304
 Alpha  occ. eigenvalues --  -10.28999 -10.27335  -8.26174  -6.17900  -6.17845
 Alpha  occ. eigenvalues --   -6.17800  -1.18246  -1.15155  -1.04850  -0.91507
 Alpha  occ. eigenvalues --   -0.83544  -0.79229  -0.74425  -0.72619  -0.66539
 Alpha  occ. eigenvalues --   -0.65450  -0.61170  -0.58505  -0.56241  -0.51383
 Alpha  occ. eigenvalues --   -0.50362  -0.49297  -0.48323  -0.47659  -0.45716
 Alpha  occ. eigenvalues --   -0.45171  -0.44333  -0.43369  -0.42607  -0.41276
 Alpha  occ. eigenvalues --   -0.39478  -0.39248  -0.36244  -0.35960  -0.33415
 Alpha  occ. eigenvalues --   -0.32129  -0.31990  -0.25953
 Alpha virt. eigenvalues --   -0.09330  -0.07905  -0.03299  -0.02001  -0.01512
 Alpha virt. eigenvalues --   -0.00354  -0.00039   0.00448   0.00995   0.01044
 Alpha virt. eigenvalues --    0.02132   0.02326   0.02816   0.03624   0.04344

 Mulliken charges:
               1
     1  C   -0.289686
     2  C   -0.122613
     3  C   -0.278112
     4  C    0.438926
     5  C   -0.962920
     6  C   -0.028389
     7  C   -0.171902
     8  N    0.056462
     9  N    0.056487
    10  S    0.799182
    11  O   -0.503686
    12  O   -0.503779
    13  H    0.202095
    14  H    0.202168
    15  H    0.178202
    16  H    0.170395
    17  H    0.177947
    18  H    0.204579
    19  H    0.170095
    20  H    0.204549
 Sum of Mulliken charges =  -0.00000

 Dipole moment (field-independent basis, Debye):
    X=             -1.4406    Y=              3.1147    Z=              0.0009  Tot=              3.4317
 Quadrupole moment (field-independent basis, Debye-Ang):
   XX=            -69.1391   YY=            -75.3308   ZZ=            -85.5880
   XY=            -10.0226   XZ=             -0.0010   YZ=             -0.0000

 Normal termination of Gaussian 16 at Thu Aug  2 16:01:55 2018.
