 Gaussian 16, Revision A.03,
 Gaussian 16:  EM64L-G16RevA.03 25-Dec-2016

 --------------------------------------------------
 #p M06/6-31+G(d,p) SCRF=(Solvent=Acetonitrile) opt
 --------------------------------------------------

 ----------------------------------------
 ADNOQZQZUQQVRY-UHFFFAOYSA-N_cat-rad_solv
 ----------------------------------------
 Symbolic Z-matrix:
 Charge =  1 Multiplicity = 2

 SCF Done:  E(UM06) =  -928.959324031     A.U. after   21 cycles
 SCF Done:  E(UM06) =  -928.966611954     A.U. after   18 cycles
 SCF Done:  E(UM06) =  -928.967814356     A.U. after   18 cycles
 SCF Done:  E(UM06) =  -928.968012749     A.U. after   17 cycles
 SCF Done:  E(UM06) =  -928.968076399     A.U. after   18 cycles
 SCF Done:  E(UM06) =  -928.968082897     A.U. after   15 cycles
 Optimization completed.
    -- Stationary point found.

                         Standard orientation:
 ---------------------------------------------------------------------
 Center     Atomic      Atomic             Coordinates (Angstroms)
 Number     Number       Type             X           Y           Z
 ---------------------------------------------------------------------
      1          6           0       -3.406358    0.353452    0.000096
      2          6           0       -1.975249    0.649810   -0.000099
      3          6           0       -1.287294    1.834845   -0.000236
      4          6           0        0.128378    1.722242   -0.000207
      5          6           0        0.616014    0.426243   -0.000054
      6          6           0        1.940839   -0.058422    0.000016
      7          6           0        2.308636   -1.497422    0.000162
      8          7           0        2.962122    0.929725    0.595393
      9          7           0        2.962156    0.929622   -0.595474
     10         16           0       -0.793286   -0.709664    0.000033
     11          8           0       -0.849566   -1.424826    1.266044
     12          8           0       -0.849521   -1.425004   -1.265880
     13          1           0       -3.665836   -0.254721   -0.878107
     14          1           0       -3.665868   -0.252537    0.879826
     15          1           0       -3.997993    1.270311   -0.000978
     16          1           0       -1.789954    2.796715   -0.000372
     17          1           0        0.772457    2.597337   -0.000308
     18          1           0        1.909692   -1.995677    0.890738
     19          1           0        3.393620   -1.612160    0.000001
     20          1           0        1.909417   -1.995928   -0.890147
 ---------------------------------------------------------------------

 The electronic state is 2-A.
 Alpha  occ. eigenvalues --  -89.34059 -19.30220 -19.30219 -14.60075 -14.59990
 Alpha  occ. eigenvalues --  -10.42891 -10.39517 -10.39241 -10.37934 -10.36123
 Alpha  occ. eigenvalues --  -10.30693 -10.30035  -8.31099  -6.22809  -6.22801
 Alpha  occ. eigenvalues --   -6.22721  -1.24935  -1.20140  -1.09859  -0.97254
 Alpha  occ. eigenvalues --   -0.89396  -0.84050  -0.79091  -0.76815  -0.71523
 Alpha  occ. eigenvalues --   -0.70129  -0.66711  -0.63342  -0.61332  -0.56512
 Alpha  occ. eigenvalues --   -0.55074  -0.54007  -0.53219  -0.51303  -0.49894
 Alpha  occ. eigenvalues --   -0.48851  -0.48525  -0.48202  -0.45993  -0.45125
 Alpha  occ. eigenvalues --   -0.44369  -0.44136  -0.40710  -0.40671  -0.38312
 Alpha  occ. eigenvalues --   -0.36878  -0.36873  -0.30413
 Alpha virt. eigenvalues --   -0.15489  -0.12398  -0.03288  -0.03200  -0.02800
 Alpha virt. eigenvalues --   -0.01968  -0.01095  -0.00959  -0.00314  -0.00083
 Alpha virt. eigenvalues --    0.00434   0.00441   0.01300   0.02244   0.02415

  Beta  occ. eigenvalues --  -89.34069 -19.30206 -19.30206 -14.59845 -14.59758
  Beta  occ. eigenvalues --  -10.42797 -10.39336 -10.38837 -10.37739 -10.36133
  Beta  occ. eigenvalues --  -10.30705 -10.30040  -8.31110  -6.22818  -6.22817
  Beta  occ. eigenvalues --   -6.22740  -1.24190  -1.20098  -1.09817  -0.96567
  Beta  occ. eigenvalues --   -0.88694  -0.83505  -0.78927  -0.76555  -0.71000
  Beta  occ. eigenvalues --   -0.69189  -0.66061  -0.62944  -0.60822  -0.56274
  Beta  occ. eigenvalues --   -0.54651  -0.53621  -0.52971  -0.51101  -0.49190
  Beta  occ. eigenvalues --   -0.48180  -0.47705  -0.47493  -0.45765  -0.44994
  Beta  occ. eigenvalues --   -0.44256  -0.42738  -0.40662  -0.40390  -0.37972
  Beta  occ. eigenvalues --   -0.36552  -0.34635
  Beta virt. eigenvalues --   -0.22125  -0.13057  -0.11939  -0.03238  -0.02614
  Beta virt. eigenvalues --   -0.01792  -0.01524  -0.00941  -0.00647  -0.00226
  Beta virt. eigenvalues --    0.00043   0.00715   0.00772   0.01458   0.02505

 Mulliken charges and spin densities:
               1          2
     1  C   -0.274687  -0.010579
     2  C   -0.039574   0.336082
     3  C   -0.331953  -0.000308
     4  C    0.559989   0.170201
     5  C   -1.096857   0.160056
     6  C    0.057909   0.073731
     7  C   -0.031218  -0.022660
     8  N    0.208808   0.125192
     9  N    0.208796   0.125193
    10  S    0.793004  -0.017241
    11  O   -0.483075   0.006375
    12  O   -0.483144   0.006368
    13  H    0.241282   0.021400
    14  H    0.241368   0.021455
    15  H    0.230972  -0.000614
    16  H    0.255133  -0.000917
    17  H    0.256588  -0.008382
    18  H    0.234380   0.007514
    19  H    0.217917  -0.000379
    20  H    0.234361   0.007510
 Sum of Mulliken charges =   1.00000   1.00000

 Dipole moment (field-independent basis, Debye):
    X=             -0.2530    Y=              6.8788    Z=              0.0001  Tot=              6.8834
 Quadrupole moment (field-independent basis, Debye-Ang):
   XX=            -38.6563   YY=            -61.3250   ZZ=            -80.1140
   XY=            -10.4572   XZ=             -0.0010   YZ=             -0.0022

 Normal termination of Gaussian 16 at Fri Aug  3 03:41:50 2018.
