 Gaussian 09, Revision E.01,
 Gaussian 09:  ES64L-G09RevE.01 30-Nov-2015

 -------------------------------
 #mp2/6-311++g(2df,2pd) opt freq
 -------------------------------

 ----------
 CH2Cl2_C2v
 ----------
 Symbolic Z-matrix:
 Charge =  0 Multiplicity = 1

 SCF Done:  E(RHF) =  -958.062486228     A.U. after   12 cycles
 E2 =    -0.5431628501D+00 EUMP2 =    -0.95860564907824D+03
 SCF Done:  E(RHF) =  -958.062645483     A.U. after    9 cycles
 E2 =    -0.5430480048D+00 EUMP2 =    -0.95860569348762D+03
 Optimization completed.
    -- Stationary point found.
 Normal termination of Gaussian 09 at Tue Jan 31 21:13:00 2017.

 ----------------------------------------------------------------------
 #N Geom=AllCheck Guess=TCheck SCRF=Check GenChk RMP2(FC)/6-311++G(2df,
 2pd) Freq
 ----------------------------------------------------------------------

 Structure from the checkpoint file:  "/scratch-local/aubhfc.CH2Cl2C2vcomG09.68332/Gau-33902.chk"
 ----------
 CH2Cl2_C2v
 ----------
 Charge =  0 Multiplicity = 1

                         Standard orientation:
 ---------------------------------------------------------------------
 Center     Atomic      Atomic             Coordinates (Angstroms)
 Number     Number       Type             X           Y           Z
 ---------------------------------------------------------------------
      1          6           0        0.000000    0.000000    0.764372
      2         17           0       -0.000000    1.468421   -0.215742
      3         17           0       -0.000000   -1.468421   -0.215742
      4          1           0        0.893698   -0.000000    1.374497
      5          1           0       -0.893698    0.000000    1.374497
 ---------------------------------------------------------------------

 SCF Done:  E(RHF) =  -958.062645483     A.U. after    1 cycles
 E2 =    -0.5430480019D+00 EUMP2 =    -0.95860569348472D+03
 E2 =    -0.5430480019D+00 EUMP2 =    -0.95860569348472D+03

 The electronic state is 1-A1.
 Alpha  occ. eigenvalues -- -104.84811-104.84811 -11.36353 -10.57401 -10.57400
 Alpha  occ. eigenvalues --   -8.04168  -8.04168  -8.03965  -8.03965  -8.03955
 Alpha  occ. eigenvalues --   -8.03955  -1.19510  -1.09775  -0.89706  -0.67857
 Alpha  occ. eigenvalues --   -0.61899  -0.58732  -0.47484  -0.47190  -0.44864
 Alpha  occ. eigenvalues --   -0.44663
 Alpha virt. eigenvalues --    0.04021   0.06330   0.08409   0.08709   0.13288
 Alpha virt. eigenvalues --    0.13587   0.13737   0.14477   0.14855   0.16904
 Alpha virt. eigenvalues --    0.17356   0.20261   0.20576   0.23409   0.24261

 Mulliken charges:
               1
     1  C    0.199153
     2  Cl  -0.082402
     3  Cl  -0.082402
     4  H   -0.017175
     5  H   -0.017175
 Sum of Mulliken charges =   0.00000

 Dipole moment (field-independent basis, Debye):
    X=             -0.0000    Y=              0.0000    Z=              1.8431  Tot=              1.8431
 Quadrupole moment (field-independent basis, Debye-Ang):
   XX=            -31.6593   YY=            -34.5154   ZZ=            -29.9617
   XY=             -0.0000   XZ=             -0.0000   YZ=              0.0000

  Exact polarizability:  29.709  -0.000  49.588   0.000  -0.000  34.025
 Approx polarizability:  29.566  -0.000  41.420   0.000  -0.000  33.334

                      1                      2                      3
                     A1                     A1                     B2
 Frequencies --    290.6311               741.2087               797.6411
 Red. masses --     19.1289                 7.4358                 8.2570
 Frc consts  --      0.9520                 2.4069                 3.0952
 IR Inten    --      0.3805                10.8380               126.4275

                      4                      5                      6
                     B1                     A2                     B2
 Frequencies --    914.3517              1189.5258              1299.3009
 Red. masses --      1.3578                 1.0183                 1.1143
 Frc consts  --      0.6688                 0.8489                 1.1083
 IR Inten    --      1.3633                 0.0000                43.8640

                      7                      8                      9
                     A1                     A1                     B1
 Frequencies --   1479.0059              3160.6625              3243.3815
 Red. masses --      1.0750                 1.0544                 1.1158
 Frc consts  --      1.3854                 6.2060                 6.9156
 IR Inten    --      0.0093                 5.6486                 0.3451

 - Thermochemistry -
 -------------------
 Temperature   298.150 Kelvin.  Pressure   1.00000 Atm.
 Atom     1 has atomic number  6 and mass  12.00000

 Molecular mass:    83.95336 amu.
 Principal axes and moments of inertia in atomic units:
                           1         2         3
     Eigenvalues --    55.58890 544.27944 588.37027
           X            0.00000   0.00000   1.00000
           Y            1.00000   0.00000   0.00000
           Z           -0.00000   1.00000  -0.00000
 This molecule is an asymmetric top.
 Rotational symmetry number  2.
 Rotational temperatures (Kelvin)      1.55811     0.15913     0.14721
 Rotational constants (GHZ):          32.46586     3.31584     3.06736
 Zero-point vibrational energy      78449.4 (Joules/Mol)
                                   18.74985 (Kcal/Mol)
 Warning -- explicit consideration of   1 degrees of freedom as
           vibrations may cause significant error
 Vibrational temperatures:    418.15  1066.43  1147.63  1315.55  1711.46
          (Kelvin)           1869.40  2127.96  4547.48  4666.50

 Zero-point correction=                           0.029880 (Hartree/Particle)
 Thermal correction to Energy=                    0.033406
 Thermal correction to Enthalpy=                  0.034350
 Thermal correction to Gibbs Free Energy=         0.003768
 Sum of electronic and zero-point Energies=           -958.575814
 Sum of electronic and thermal Energies=              -958.572288
 Sum of electronic and thermal Enthalpies=            -958.571344
 Sum of electronic and thermal Free Energies=         -958.601926

                     E (Thermal)             CV                S
                      KCal/Mol        Cal/Mol-Kelvin    Cal/Mol-Kelvin
 Total                   20.962              9.982             64.366
 Electronic               0.000              0.000              0.000
 Translational            0.889              2.981             39.197
 Rotational               0.889              2.981             23.013
 Vibrational             19.185              4.020              2.156
 Vibration     1          0.687              1.691              1.470

 Optimization completed.
    -- Stationary point found.
 Normal termination of Gaussian 09 at Tue Jan 31 21:18:21 2017.
