 Gaussian 09, Revision E.01,
 Gaussian 09:  ES64L-G09RevE.01 30-Nov-2015

 -------------------------------
 #mp2/6-311++g(2df,2pd) opt freq
 -------------------------------

 ---------
 Cl2_Cinfv
 ---------
 Symbolic Z-matrix:
 Charge =  0 Multiplicity = 1

 SCF Done:  E(RHF) =  -918.982779540     A.U. after    9 cycles
 E2 =    -0.3691543589D+00 EUMP2 =    -0.91935193389875D+03
 SCF Done:  E(RHF) =  -918.983445323     A.U. after    7 cycles
 E2 =    -0.3688605503D+00 EUMP2 =    -0.91935230587285D+03
 SCF Done:  E(RHF) =  -918.983645402     A.U. after    7 cycles
 E2 =    -0.3687133031D+00 EUMP2 =    -0.91935235870520D+03
 Optimization completed.
    -- Stationary point found.

 1\1\GINC-UV1\FOpt\RMP2-FC\6-311++G(2df,2pd)\Cl2\AUBHFC\31-Jan-2017\0\\
 #mp2/6-311++g(2df,2pd) opt freq\\Cl2_Cinfv\\0,1\Cl,0.,0.,-0.9974387493
 \Cl,0.,0.,0.9974387493\\Version=ES64L-G09RevE.01\State=1-SGG\HF=-918.9
 836454\MP2=-919.3523587\RMSD=3.195e-09\RMSF=1.660e-06\Dipole=0.,0.,0.\
 PG=D*H [C*(Cl1.Cl1)]\\@

 AN OPTIMIST IS A GUY

 Normal termination of Gaussian 09 at Tue Jan 31 23:14:10 2017.

 ----------------------------------------------------------------------
 #N Geom=AllCheck Guess=TCheck SCRF=Check GenChk RMP2(FC)/6-311++G(2df,
 2pd) Freq
 ----------------------------------------------------------------------

 Structure from the checkpoint file:  "/scratch/aubhfc.Cl2CinfvcomG09.68344/Gau-168454.chk"
 ---------
 Cl2_Cinfv
 ---------
 Charge =  0 Multiplicity = 1

                         Standard orientation:
 ---------------------------------------------------------------------
 Center     Atomic      Atomic             Coordinates (Angstroms)
 Number     Number       Type             X           Y           Z
 ---------------------------------------------------------------------
      1         17           0        0.000000    0.000000    0.997439
      2         17           0        0.000000    0.000000   -0.997439
 ---------------------------------------------------------------------

 SCF Done:  E(RHF) =  -918.983645402     A.U. after    1 cycles
 E2 =    -0.3687133010D+00 EUMP2 =    -0.91935235870307D+03
 E2 =    -0.3687133010D+00 EUMP2 =    -0.91935235870307D+03

 The electronic state is 1-SGG.
 Alpha  occ. eigenvalues -- -104.89851-104.89851 -10.62078 -10.62064  -8.08866
 Alpha  occ. eigenvalues --   -8.08840  -8.08535  -8.08535  -8.08534  -8.08534
 Alpha  occ. eigenvalues --   -1.21768  -1.01628  -0.59758  -0.57018  -0.57018
 Alpha  occ. eigenvalues --   -0.44525  -0.44525
 Alpha virt. eigenvalues --    0.02555   0.09951   0.11899   0.11899   0.12212
 Alpha virt. eigenvalues --    0.14807   0.15111   0.15111   0.24334   0.48253
 Alpha virt. eigenvalues --    0.49860   0.49860   0.53859   0.57609   0.57609

 Mulliken charges:
               1
     1  Cl   0.000000
     2  Cl   0.000000
 Sum of Mulliken charges =   0.00000

 Dipole moment (field-independent basis, Debye):
    X=             -0.0000    Y=             -0.0000    Z=             -0.0000  Tot=              0.0000
 Quadrupole moment (field-independent basis, Debye-Ang):
   XX=            -25.6598   YY=            -25.6598   ZZ=            -22.3446
   XY=              0.0000   XZ=              0.0000   YZ=              0.0000

  Exact polarizability:  18.656  -0.000  18.656  -0.000   0.000  36.555
 Approx polarizability:  18.584  -0.000  18.584  -0.000  -0.000  36.022

                      1
                     SGG
 Frequencies --    580.9167
 Red. masses --     34.9689
 Frc consts  --      6.9528
 IR Inten    --      0.0000

 - Thermochemistry -
 -------------------
 Temperature   298.150 Kelvin.  Pressure   1.00000 Atm.
 Atom     1 has atomic number 17 and mass  34.96885

 Molecular mass:    69.93771 amu.
 Principal axes and moments of inertia in atomic units:
                           1         2         3
     Eigenvalues --    -0.00000 248.47437 248.47437
           X           -0.00000   1.00000  -0.00000
           Y            0.00000   0.00000   1.00000
           Z            1.00000   0.00000  -0.00000
 This molecule is a prolate symmetric top.
 Rotational symmetry number  2.
 Rotational temperature (Kelvin)      0.34858
 Rotational constant (GHZ):           7.263289
 Zero-point vibrational energy       3474.7 (Joules/Mol)
                                    0.83046 (Kcal/Mol)
 Warning -- explicit consideration of   1 degrees of freedom as
           vibrations may cause significant error
 Vibrational temperatures:    835.81
          (Kelvin)

 Zero-point correction=                           0.001323 (Hartree/Particle)
 Thermal correction to Energy=                    0.003855
 Thermal correction to Enthalpy=                  0.004799
 Thermal correction to Gibbs Free Energy=        -0.020460
 Sum of electronic and zero-point Energies=           -919.351035
 Sum of electronic and thermal Energies=              -919.348504
 Sum of electronic and thermal Enthalpies=            -919.347560
 Sum of electronic and thermal Free Energies=         -919.372819

                     E (Thermal)             CV                S
                      KCal/Mol        Cal/Mol-Kelvin    Cal/Mol-Kelvin
 Total                    2.419              6.041             53.162
 Electronic               0.000              0.000              0.000
 Translational            0.889              2.981             38.652
 Rotational               0.592              1.987             14.026
 Vibrational              0.938              1.073              0.484
 Vibration     1          0.938              1.073              0.484

 Optimization completed.
    -- Stationary point found.

 1\1\GINC-UV1\Freq\RMP2-FC\6-311++G(2df,2pd)\Cl2\AUBHFC\31-Jan-2017\0\\
 #N Geom=AllCheck Guess=TCheck SCRF=Check GenChk RMP2(FC)/6-311++G(2df,
 2pd) Freq\\Cl2_Cinfv\\0,1\Cl,0.,0.,-0.9974387493\Cl,0.,0.,0.9974387493
 \\Version=ES64L-G09RevE.01\State=1-SGG\HF=-918.9836454\MP2=-919.352358
 7\RMSD=5.761e-10\RMSF=1.655e-06\ZeroPoint=0.0013234\Thermal=0.0038547\
 Dipole=0.,0.,0.\DipoleDeriv=0.,0.,0.,0.,0.,0.,0.,0.,0.,0.,0.,0.,0.,0.,
 0.,0.,0.,0.\Polar=18.6560848,0.,18.6560848,0.,0.,36.5548872\PG=D*H [C*
 (Cl1.Cl1)]\NImag=0\\-0.00000076,0.,-0.00000076,0.,0.,0.22329065,0.0000

 Normal termination of Gaussian 09 at Tue Jan 31 23:26:48 2017.
